 Gaussian 09, Revision E.01,
 Gaussian 09:  ES64L-G09RevE.01 30-Nov-2015

 ----------------------------------------------------------------------
 # opt freq=noraman b3lyp/6-31++g(d,p) temperature=393.15 scrf=(smd,sol
 vent=ether) geom=connectivity empiricaldispersion=GD3 integral=UltraFi
 ne
 ----------------------------------------------------------------------

 -------------------
 Title Card Required
 -------------------
 Symbolic Z-matrix:
 Charge =  0 Multiplicity = 1

 SCF Done:  E(RB3LYP) =  -308.869012395     A.U. after   10 cycles
 SCF Done:  E(RB3LYP) =  -308.893426107     A.U. after   10 cycles
 SCF Done:  E(RB3LYP) =  -308.899849397     A.U. after    9 cycles
 SCF Done:  E(RB3LYP) =  -308.900039656     A.U. after    8 cycles
 SCF Done:  E(RB3LYP) =  -308.900048486     A.U. after    8 cycles
 SCF Done:  E(RB3LYP) =  -308.900048859     A.U. after    7 cycles
 SCF Done:  E(RB3LYP) =  -308.900048892     A.U. after    6 cycles
 Optimization completed.
    -- Stationary point found.
 Normal termination of Gaussian 09 at Sun Jul  5 15:30:19 2020.

 ----------------------------------------------------------------------
 #N Geom=AllCheck Guess=TCheck SCRF=Check GenChk RB3LYP/6-31++G(d,p) Fr
 eq
 ----------------------------------------------------------------------

 Structure from the checkpoint file:  "2oxygen_ether.chk"
 -------------------
 Title Card Required
 -------------------
 Charge =  0 Multiplicity = 1

                         Standard orientation:
 ---------------------------------------------------------------------
 Center     Atomic      Atomic             Coordinates (Angstroms)
 Number     Number       Type             X           Y           Z
 ---------------------------------------------------------------------
      1          6           0       -2.994304    0.116503    0.000236
      2          1           0       -3.128680    0.745467   -0.893514
      3          1           0       -3.129554    0.743050    0.895547
      4          1           0       -3.753485   -0.670180   -0.001191
      5          6           0       -0.645746    0.400709   -0.000106
      6          1           0       -0.685066    1.047181    0.891186
      7          1           0       -0.685303    1.047358   -0.891260
      8          6           0        0.645746   -0.400709   -0.000363
      9          1           0        0.685112   -1.047106   -0.891707
     10          1           0        0.685257   -1.047433    0.890738
     11          6           0        2.994304   -0.116503    0.000374
     12          1           0        3.129503   -0.744380   -0.894014
     13          1           0        3.753485    0.670182    0.000596
     14          1           0        3.128731   -0.744138    0.895049
     15          8           0       -1.725558   -0.523235   -0.000022
     16          8           0        1.725558    0.523235   -0.000262
 ---------------------------------------------------------------------

 SCF Done:  E(RB3LYP) =  -308.900048892     A.U. after    1 cycles

 The electronic state is 1-A.
 Alpha  occ. eigenvalues --  -19.15863 -19.15863 -10.22945 -10.22922 -10.22466
 Alpha  occ. eigenvalues --  -10.22466  -1.03879  -1.02961  -0.76304  -0.69153
 Alpha  occ. eigenvalues --   -0.64346  -0.60289  -0.49792  -0.49378  -0.47186
 Alpha  occ. eigenvalues --   -0.45311  -0.45110  -0.42438  -0.41109  -0.36168
 Alpha  occ. eigenvalues --   -0.35818  -0.32665  -0.32003  -0.26382  -0.25746
 Alpha virt. eigenvalues --   -0.00148   0.00611   0.02058   0.02413   0.02843
 Alpha virt. eigenvalues --    0.04133   0.04158   0.04451   0.06283   0.06860
 Alpha virt. eigenvalues --    0.07109   0.07551   0.09886   0.11405   0.11558

 Mulliken charges:
               1
     1  C   -0.258419
     2  H    0.147010
     3  H    0.147063
     4  H    0.164970
     5  C   -0.169213
     6  H    0.159685
     7  H    0.159634
     8  C   -0.169214
     9  H    0.159669
    10  H    0.159649
    11  C   -0.258419
    12  H    0.147043
    13  H    0.164970
    14  H    0.147031
    15  O   -0.350729
    16  O   -0.350729
 Sum of Mulliken charges =   0.00000

 Dipole moment (field-independent basis, Debye):
    X=             -0.0000    Y=              0.0000    Z=              0.0007  Tot=              0.0007
 Quadrupole moment (field-independent basis, Debye-Ang):
   XX=            -30.5476   YY=            -41.0501   ZZ=            -38.7535
   XY=             -4.9635   XZ=              0.0021   YZ=              0.0004

  Exact polarizability:  81.540  -0.143  67.032  -0.002   0.001  64.941
 Approx polarizability:  77.430   0.955  76.830  -0.002   0.000  72.376

                      1                      2                      3
                      A                      A                      A
 Frequencies --     79.9623               104.1793               125.6611
 Red. masses --      2.7277                 1.7548                 2.3097
 Frc consts  --      0.0103                 0.0112                 0.0215
 IR Inten    --      7.0359                10.8709                 0.0000

                      4                      5                      6
                      A                      A                      A
 Frequencies --    153.0173               227.6518               244.7199
 Red. masses --      3.0722                 1.2109                 1.3793
 Frc consts  --      0.0424                 0.0370                 0.0487
 IR Inten    --      5.4341                 0.0000                17.1332

                      7                      8                      9
                      A                      A                      A
 Frequencies --    341.2050               395.0504               516.5315
 Red. masses --      3.1014                 5.3747                 2.8633
 Frc consts  --      0.2127                 0.4942                 0.4501
 IR Inten    --      0.0000                 0.0000                 6.4252

                     10                     11                     12
                      A                      A                      A
 Frequencies --    849.7753               942.1295              1004.1870
 Red. masses --      1.1078                 5.3336                 3.7043
 Frc consts  --      0.4713                 2.7893                 2.2008
 IR Inten    --      0.8013                98.2653                 0.0000

                     13                     14                     15
                      A                      A                      A
 Frequencies --   1079.0389              1137.6171              1141.9907
 Red. masses --      3.0251                 5.4306                 4.8191
 Frc consts  --      2.0752                 4.1408                 3.7029
 IR Inten    --      0.0000               407.6854                 0.0000

                     16                     17                     18
                      A                      A                      A
 Frequencies --   1150.8079              1175.7825              1189.0498
 Red. masses --      1.4337                 1.2435                 1.4161
 Frc consts  --      1.1187                 1.0128                 1.1796
 IR Inten    --      0.0003                 4.7132                 0.0000

                     19                     20                     21
                      A                      A                      A
 Frequencies --   1211.9180              1232.2172              1246.2830
 Red. masses --      1.5742                 1.6906                 1.1550
 Frc consts  --      1.3623                 1.5124                 1.0570
 IR Inten    --     94.0624                 0.0000                16.5315

                     22                     23                     24
                      A                      A                      A
 Frequencies --   1306.1815              1374.5254              1452.4337
 Red. masses --      1.0737                 1.2697                 1.3635
 Frc consts  --      1.0793                 1.4133                 1.6948
 IR Inten    --      0.0000                26.1816                 0.0000

                     25                     26                     27
                      A                      A                      A
 Frequencies --   1480.1988              1485.0325              1485.0749
 Red. masses --      1.1338                 1.0475                 1.0491
 Frc consts  --      1.4636                 1.3610                 1.3632
 IR Inten    --      1.2549                19.2007                 0.1781

                     28                     29                     30
                      A                      A                      A
 Frequencies --   1485.2166              1499.9356              1501.2401
 Red. masses --      1.1565                 1.0593                 1.1021
 Frc consts  --      1.5030                 1.4041                 1.4635
 IR Inten    --      0.4447                31.5548                 0.0000

                     31                     32                     33
                      A                      A                      A
 Frequencies --   1522.4611              1529.1435              2978.7362
 Red. masses --      1.0906                 1.0864                 1.0467
 Frc consts  --      1.4894                 1.4967                 5.4720
 IR Inten    --      0.0000                 5.0596                 0.0000

                     34                     35                     36
                      A                      A                      A
 Frequencies --   2979.8587              2988.6602              2988.9983
 Red. masses --      1.0437                 1.0453                 1.0442
 Frc consts  --      5.4603                 5.5008                 5.4965
 IR Inten    --     96.8364               223.7594                 0.0000

                     37                     38                     39
                      A                      A                      A
 Frequencies --   3009.7338              3032.1076              3036.4806
 Red. masses --      1.1054                 1.1070                 1.1053
 Frc consts  --      5.8994                 5.9962                 6.0045
 IR Inten    --      0.0000               307.0019                 0.0000

                     40                     41                     42
                      A                      A                      A
 Frequencies --   3038.2749              3124.7824              3124.8395
 Red. masses --      1.1083                 1.0984                 1.0982
 Frc consts  --      6.0276                 6.3189                 6.3184
 IR Inten    --     13.6699                71.4649                 0.0031

 - Thermochemistry -
 -------------------
 Temperature   393.150 Kelvin.  Pressure   1.00000 Atm.
 Atom     1 has atomic number  6 and mass  12.00000

 Molecular mass:    90.06808 amu.
 Principal axes and moments of inertia in atomic units:
                           1         2         3
     Eigenvalues --    95.665351416.875681466.63307
           X            0.99982  -0.01917   0.00000
           Y            0.01917   0.99982   0.00003
           Z           -0.00000  -0.00003   1.00000
 This molecule is an asymmetric top.
 Rotational symmetry number  1.
 Rotational temperatures (Kelvin)      0.90538     0.06113     0.05906
 Rotational constants (GHZ):          18.86515     1.27375     1.23053
 Zero-point vibrational energy     370679.0 (Joules/Mol)
                                   88.59441 (Kcal/Mol)
 Warning -- explicit consideration of   9 degrees of freedom as
           vibrations may cause significant error
 Vibrational temperatures:    115.05   149.89   180.80   220.16   327.54
          (Kelvin)            352.10   490.92   568.39   743.17  1222.64
                             1355.51  1444.80  1552.49  1636.78  1643.07
                             1655.75  1691.69  1710.78  1743.68  1772.88
                             1793.12  1879.30  1977.63  2089.73  2129.67
                             2136.63  2136.69  2136.89  2158.07  2159.95
                             2190.48  2200.09  4285.73  4287.35  4300.01
                             4300.50  4330.33  4362.52  4368.81  4371.39
                             4495.86  4495.94

 Zero-point correction=                           0.141184 (Hartree/Particle)
 Thermal correction to Energy=                    0.153556
 Thermal correction to Enthalpy=                  0.154801
 Thermal correction to Gibbs Free Energy=         0.095205
 Sum of electronic and zero-point Energies=           -308.758865
 Sum of electronic and thermal Energies=              -308.746493
 Sum of electronic and thermal Enthalpies=            -308.745248
 Sum of electronic and thermal Free Energies=         -308.804844

                     E (Thermal)             CV                S
                      KCal/Mol        Cal/Mol-Kelvin    Cal/Mol-Kelvin
 Total                   96.358             32.570             95.122
 Electronic               0.000              0.000              0.000
 Translational            1.172              2.981             40.780
 Rotational               1.172              2.981             27.613
 Vibrational             94.014             26.609             26.729
 Vibration     1          0.787              1.973              4.436
 Vibration     2          0.791              1.963              3.915
 Vibration     3          0.795              1.953              3.548
 Vibration     4          0.802              1.936              3.165
 Vibration     5          0.826              1.876              2.407
 Vibration     6          0.833              1.860              2.271
 Vibration     7          0.880              1.748              1.670
 Vibration     8          0.913              1.674              1.419
 Vibration     9          1.001              1.488              0.994

 Optimization completed.
    -- Stationary point found.
 Normal termination of Gaussian 09 at Sun Jul  5 15:44:23 2020.
