 Gaussian 09, Revision E.01,
 Gaussian 09:  ES64L-G09RevE.01 30-Nov-2015

 ----------------------------------------------------------------------
 # opt freq=noraman rb3lyp/6-31++g(d,p) temperature=393.15 geom=connect
 ivity empiricaldispersion=GD3 integral=UltraFine
 ----------------------------------------------------------------------

 -------------------
 Title Card Required
 -------------------
 Symbolic Z-matrix:
 Charge =  0 Multiplicity = 1

 SCF Done:  E(RB3LYP) =  -308.891037526     A.U. after   10 cycles
 SCF Done:  E(RB3LYP) =  -308.892290503     A.U. after    9 cycles
 SCF Done:  E(RB3LYP) =  -308.892537279     A.U. after    9 cycles
 SCF Done:  E(RB3LYP) =  -308.892581972     A.U. after    8 cycles
 SCF Done:  E(RB3LYP) =  -308.892597472     A.U. after    9 cycles
 SCF Done:  E(RB3LYP) =  -308.892598997     A.U. after    7 cycles
 SCF Done:  E(RB3LYP) =  -308.892599534     A.U. after    7 cycles
 Optimization completed.
    -- Stationary point found.
 Normal termination of Gaussian 09 at Sun Jul  5 15:11:07 2020.

 ----------------------------------------------------------------------
 #N Geom=AllCheck Guess=TCheck SCRF=Check GenChk RB3LYP/6-31++G(d,p) Fr
 eq
 ----------------------------------------------------------------------

 Structure from the checkpoint file:  "2oxygen_gauche.chk"
 -------------------
 Title Card Required
 -------------------
 Charge =  0 Multiplicity = 1

                         Standard orientation:
 ---------------------------------------------------------------------
 Center     Atomic      Atomic             Coordinates (Angstroms)
 Number     Number       Type             X           Y           Z
 ---------------------------------------------------------------------
      1          6           0       -2.748171   -0.457102   -0.072517
      2          1           0       -2.774899   -0.687127   -1.149336
      3          1           0       -3.340413    0.455289    0.106579
      4          1           0       -3.197053   -1.285916    0.479735
      5          6           0       -0.719485    0.742370   -0.236197
      6          1           0       -1.185136    1.711144    0.016113
      7          1           0       -0.740237    0.626552   -1.331990
      8          6           0        0.719485    0.742370    0.236197
      9          1           0        0.740237    0.626553    1.331990
     10          1           0        1.185136    1.711144   -0.016114
     11          6           0        2.748171   -0.457102    0.072516
     12          1           0        2.774900   -0.687126    1.149336
     13          1           0        3.197053   -1.285916   -0.479735
     14          1           0        3.340412    0.455290   -0.106580
     15          8           0       -1.419572   -0.316444    0.394643
     16          8           0        1.419572   -0.316445   -0.394643
 ---------------------------------------------------------------------

 SCF Done:  E(RB3LYP) =  -308.892599534     A.U. after    1 cycles

 The electronic state is 1-A.
 Alpha  occ. eigenvalues --  -19.15774 -19.15773 -10.23772 -10.23748 -10.23074
 Alpha  occ. eigenvalues --  -10.23074  -1.04417  -1.03010  -0.77096  -0.69528
 Alpha  occ. eigenvalues --   -0.65828  -0.60442  -0.50331  -0.50297  -0.47750
 Alpha  occ. eigenvalues --   -0.45832  -0.45738  -0.43043  -0.39823  -0.38839
 Alpha  occ. eigenvalues --   -0.36681  -0.32722  -0.32014  -0.26778  -0.25662
 Alpha virt. eigenvalues --   -0.00687   0.00008   0.01239   0.02014   0.03356
 Alpha virt. eigenvalues --    0.03386   0.04143   0.05181   0.05255   0.05403
 Alpha virt. eigenvalues --    0.06600   0.07933   0.09523   0.10161   0.11543

 Mulliken charges:
               1
     1  C   -0.220263
     2  H    0.138797
     3  H    0.130347
     4  H    0.160019
     5  C   -0.165549
     6  H    0.118923
     7  H    0.145568
     8  C   -0.165549
     9  H    0.145568
    10  H    0.118923
    11  C   -0.220263
    12  H    0.138797
    13  H    0.160019
    14  H    0.130347
    15  O   -0.307843
    16  O   -0.307843
 Sum of Mulliken charges =  -0.00000

 Dipole moment (field-independent basis, Debye):
    X=              0.0000    Y=              1.4522    Z=             -0.0000  Tot=              1.4522
 Quadrupole moment (field-independent basis, Debye-Ang):
   XX=            -31.4653   YY=            -38.3282   ZZ=            -40.0187
   XY=              0.0000   XZ=              2.3501   YZ=             -0.0000

  Exact polarizability:  71.936   0.000  57.624   0.775  -0.000  53.901
 Approx polarizability:  78.599   0.000  77.097   0.641  -0.000  75.118

                      1                      2                      3
                      A                      A                      A
 Frequencies --     74.9851                83.0475               122.1441
 Red. masses --      2.9187                 2.5328                 1.9379
 Frc consts  --      0.0097                 0.0103                 0.0170
 IR Inten    --      3.3936                 7.4287                 1.3296

                      4                      5                      6
                      A                      A                      A
 Frequencies --    231.2494               241.0818               281.2616
 Red. masses --      1.2227                 1.4696                 2.0898
 Frc consts  --      0.0385                 0.0503                 0.0974
 IR Inten    --      3.2174                 2.1884                 2.7353

                      7                      8                      9
                      A                      A                      A
 Frequencies --    317.3272               368.9275               578.7989
 Red. masses --      2.3640                 3.0566                 2.5647
 Frc consts  --      0.1403                 0.2451                 0.5062
 IR Inten    --      3.7894                 0.1182                 1.9439

                     10                     11                     12
                      A                      A                      A
 Frequencies --    864.5178               872.7380              1042.9752
 Red. masses --      2.4908                 2.1739                 3.0277
 Frc consts  --      1.0968                 0.9756                 1.9405
 IR Inten    --     24.2135                20.5855                 5.1956

                     13                     14                     15
                      A                      A                      A
 Frequencies --   1053.4751              1113.7443              1143.8937
 Red. masses --      2.2749                 1.8304                 5.1243
 Frc consts  --      1.4875                 1.3377                 3.9505
 IR Inten    --     30.3687                 1.6846               261.4101

                     16                     17                     18
                      A                      A                      A
 Frequencies --   1168.3982              1176.4881              1181.4203
 Red. masses --      3.1005                 1.2597                 1.4713
 Frc consts  --      2.4938                 1.0273                 1.2099
 IR Inten    --     32.3693                 2.3799                19.9003

                     19                     20                     21
                      A                      A                      A
 Frequencies --   1222.6091              1224.8088              1269.3824
 Red. masses --      1.5848                 1.5950                 1.2013
 Frc consts  --      1.3957                 1.4097                 1.1405
 IR Inten    --     17.2772                27.8471                21.5185

                     22                     23                     24
                      A                      A                      A
 Frequencies --   1314.7583              1400.7080              1445.7399
 Red. masses --      1.1238                 1.2495                 1.4225
 Frc consts  --      1.1446                 1.4444                 1.7518
 IR Inten    --     12.4521                35.0231                 7.4603

                     25                     26                     27
                      A                      A                      A
 Frequencies --   1477.7071              1480.6497              1491.2677
 Red. masses --      1.1368                 1.1859                 1.0461
 Frc consts  --      1.4626                 1.5318                 1.3707
 IR Inten    --      5.7423                 0.0236                 4.0334

                     28                     29                     30
                      A                      A                      A
 Frequencies --   1491.3131              1497.7757              1498.7442
 Red. masses --      1.0458                 1.0647                 1.0716
 Frc consts  --      1.3703                 1.4072                 1.4182
 IR Inten    --      9.6189                17.8696                 9.0014

                     31                     32                     33
                      A                      A                      A
 Frequencies --   1516.6130              1517.8596              2954.0628
 Red. masses --      1.0971                 1.0861                 1.0581
 Frc consts  --      1.4868                 1.4743                 5.4400
 IR Inten    --      1.1633                 2.9878                 3.0182

                     34                     35                     36
                      A                      A                      A
 Frequencies --   2965.4666              2971.4352              2977.3595
 Red. masses --      1.0475                 1.0400                 1.0491
 Frc consts  --      5.4273                 5.4103                 5.4792
 IR Inten    --     34.6630               166.0073                78.7406

                     37                     38                     39
                      A                      A                      A
 Frequencies --   3002.1417              3014.9692              3020.4089
 Red. masses --      1.1023                 1.0989                 1.1037
 Frc consts  --      5.8536                 5.8851                 5.9327
 IR Inten    --     31.7231               141.7445                44.7867

                     40                     41                     42
                      A                      A                      A
 Frequencies --   3020.8928              3126.4237              3126.6013
 Red. masses --      1.1045                 1.0965                 1.0964
 Frc consts  --      5.9386                 6.3149                 6.3146
 IR Inten    --     27.3284                26.5540                29.7161

 - Thermochemistry -
 -------------------
 Temperature   393.150 Kelvin.  Pressure   1.00000 Atm.
 Atom     1 has atomic number  6 and mass  12.00000

 Molecular mass:    90.06808 amu.
 Principal axes and moments of inertia in atomic units:
                           1         2         3
     Eigenvalues --   163.979501192.275291262.63694
           X            0.99989   0.00000   0.01460
           Y           -0.00000   1.00000  -0.00000
           Z           -0.01460   0.00000   0.99989
 This molecule is an asymmetric top.
 Rotational symmetry number  1.
 Rotational temperatures (Kelvin)      0.52820     0.07265     0.06860
 Rotational constants (GHZ):          11.00590     1.51370     1.42934
 Zero-point vibrational energy     370520.4 (Joules/Mol)
                                   88.55650 (Kcal/Mol)
 Warning -- explicit consideration of   9 degrees of freedom as
           vibrations may cause significant error
 Vibrational temperatures:    107.89   119.49   175.74   332.72   346.86
          (Kelvin)            404.67   456.56   530.80   832.76  1243.85
                             1255.67  1500.61  1515.71  1602.43  1645.81
                             1681.06  1692.70  1699.80  1759.06  1762.22
                             1826.36  1891.64  2015.30  2080.09  2126.09
                             2130.32  2145.60  2145.66  2154.96  2156.36
                             2182.07  2183.86  4250.23  4266.64  4275.23
                             4283.75  4319.41  4337.86  4345.69  4346.39
                             4498.22  4498.48

 Zero-point correction=                           0.141124 (Hartree/Particle)
 Thermal correction to Energy=                    0.153361
 Thermal correction to Enthalpy=                  0.154606
 Thermal correction to Gibbs Free Energy=         0.095133
 Sum of electronic and zero-point Energies=           -308.751476
 Sum of electronic and thermal Energies=              -308.739239
 Sum of electronic and thermal Enthalpies=            -308.737994
 Sum of electronic and thermal Free Energies=         -308.797467

                     E (Thermal)             CV                S
                      KCal/Mol        Cal/Mol-Kelvin    Cal/Mol-Kelvin
 Total                   96.235             32.469             94.925
 Electronic               0.000              0.000              0.000
 Translational            1.172              2.981             40.780
 Rotational               1.172              2.981             27.828
 Vibrational             93.891             26.508             26.316
 Vibration     1          0.786              1.975              4.563
 Vibration     2          0.787              1.972              4.362
 Vibration     3          0.794              1.954              3.604
 Vibration     4          0.827              1.873              2.377
 Vibration     5          0.831              1.863              2.299
 Vibration     6          0.849              1.821              2.015
 Vibration     7          0.867              1.778              1.798
 Vibration     8          0.896              1.711              1.535
 Vibration     9          1.054              1.385              0.830

 Optimization completed.
    -- Stationary point found.
 Normal termination of Gaussian 09 at Sun Jul  5 15:14:01 2020.
